14.4
10.89 0 0 0 10.89 0 0 0 10.89
2.27 0 0 0 2.27 0 0 0 2.27
-2.27 0 0 0 -2.27 0 0 0 -2.27