64   
2    

1    
  0.0100000000000000   0.0000000000000000   0.0000000000000000
  -0.0869867900    0.0000000000    0.0000000000
   0.0008674500    0.0000000000    0.0000000000
   0.0001270800    0.0000000000    0.0000000000
   0.0001999100    0.0000000000    0.0000000000
   0.0001270800    0.0000000000    0.0000000000
   0.0001999100    0.0000000000    0.0000000000
  -0.0048259800    0.0000000000    0.0000000000
   0.0004515900    0.0000000000    0.0000000000
  -0.0055084200    0.0014293900    0.0014293900
   0.0004480200   -0.0003381900   -0.0003381900
  -0.0054937700    0.0014231700   -0.0014231700
   0.0004534000   -0.0003405300    0.0003405300
  -0.0054937700   -0.0014231700    0.0014231700
   0.0004534000    0.0003405300   -0.0003405300
  -0.0055084200   -0.0014293900   -0.0014293900
   0.0004480200    0.0003381900    0.0003381900
   0.0023444900   -0.0014180100    0.0021763400
   0.0023271000   -0.0014345500   -0.0021644600
   0.0005168000    0.0003380500   -0.0008388700
   0.0005126900    0.0003407500    0.0008404000
   0.0023444900    0.0014180100   -0.0021763400
   0.0023271000    0.0014345500    0.0021644600
   0.0005168000   -0.0003380500    0.0008388700
   0.0005126900   -0.0003407500   -0.0008404000
   0.0023444900    0.0021763400   -0.0014180100
   0.0023271000   -0.0021644600   -0.0014345500
   0.0023444900   -0.0021763400    0.0014180100
   0.0023271000    0.0021644600    0.0014345500
   0.0005168000   -0.0008388700    0.0003380500
   0.0005126900    0.0008404000    0.0003407500
   0.0005168000    0.0008388700   -0.0003380500
   0.0005126900   -0.0008404000   -0.0003407500
   0.0222733900    0.0161225500    0.0161225500
  -0.0006163800    0.0004643900    0.0004643900
   0.0001021600    0.0000469200    0.0001483500
  -0.0005515100   -0.0004300700   -0.0003999600
   0.0001021600    0.0001483500    0.0000469200
  -0.0005515100   -0.0003999600   -0.0004300700
   0.0014513400    0.0009557000    0.0009557000
  -0.0002960500    0.0001880800    0.0001880800
  -0.0005459500   -0.0004237000    0.0003936900
   0.0001083200    0.0000433300   -0.0001526900
  -0.0006179800    0.0004657000   -0.0004657000
   0.0220458400    0.0157140200   -0.0157140200
  -0.0002974900    0.0001881300   -0.0001881300
   0.0014497900    0.0009558900   -0.0009558900
  -0.0005459500   -0.0003936900    0.0004237000
   0.0001083200    0.0001526900   -0.0000433300
  -0.0005459500    0.0003936900   -0.0004237000
   0.0001083200   -0.0001526900    0.0000433300
  -0.0002974900   -0.0001881300    0.0001881300
   0.0014497900   -0.0009558900    0.0009558900
  -0.0006179800   -0.0004657000    0.0004657000
   0.0220458400   -0.0157140200    0.0157140200
  -0.0005459500    0.0004237000   -0.0003936900
   0.0001083200   -0.0000433300    0.0001526900
   0.0014513400   -0.0009557000   -0.0009557000
  -0.0002960500   -0.0001880800   -0.0001880800
   0.0001021600   -0.0001483500   -0.0000469200
  -0.0005515100    0.0003999600    0.0004300700
   0.0001021600   -0.0000469200   -0.0001483500
  -0.0005515100    0.0004300700    0.0003999600
   0.0222733900   -0.0161225500   -0.0161225500
  -0.0006163800   -0.0004643900   -0.0004643900

33   
  0.0100000000000000   0.0000000000000000   0.0000000000000000
   0.0220385500    0.0156983400    0.0156983400
  -0.0006196400    0.0000449800    0.0000449800
   0.0001007100    0.0004656100    0.0001536900
  -0.0005498800   -0.0004260700    0.0009598100
   0.0001007100    0.0001536900    0.0004656100
  -0.0005498800    0.0009598100   -0.0004260700
   0.0014410000   -0.0003960000   -0.0003960000
  -0.0002988100    0.0001879100    0.0001879100
   0.0220385500   -0.0156983400   -0.0156983400
  -0.0006196400   -0.0000449800   -0.0000449800
   0.0001007100   -0.0004656100   -0.0001536900
  -0.0005498800    0.0004260700   -0.0009598100
   0.0001007100   -0.0001536900   -0.0004656100
  -0.0005498800   -0.0009598100    0.0004260700
   0.0014410000    0.0003960000    0.0003960000
  -0.0002988100   -0.0001879100   -0.0001879100
   0.0222769500   -0.0161382300    0.0161382300
  -0.0006191900   -0.0000452800    0.0000452800
   0.0001053300   -0.0004647700    0.0001478000
  -0.0005521900    0.0004285700    0.0009521900
   0.0001053300   -0.0001478000    0.0004647700
  -0.0005521900   -0.0009521900   -0.0004285700
   0.0014564400    0.0003972000   -0.0003972000
  -0.0002988600   -0.0001882200    0.0001882200
   0.0222769500    0.0161382300   -0.0161382300
  -0.0006191900    0.0000452800   -0.0000452800
   0.0001053300    0.0004647700   -0.0001478000
  -0.0005521900   -0.0004285700   -0.0009521900
   0.0001053300    0.0001478000   -0.0004647700
  -0.0005521900    0.0009521900    0.0004285700
   0.0014564400   -0.0003972000    0.0003972000
  -0.0002988600    0.0001882200   -0.0001882200
  -0.1020573000   -0.0000000000   -0.0000000000
   0.0002802000   -0.0000000000   -0.0000000000
   0.0000017100   -0.0000000000   -0.0000000000
   0.0012155000   -0.0000000000   -0.0000000000
   0.0000017100   -0.0000000000   -0.0000000000
   0.0012155000   -0.0000000000   -0.0000000000
  -0.0011333200   -0.0000000000   -0.0000000000
   0.0001350600   -0.0000000000   -0.0000000000
   0.0020735800    0.0024073600   -0.0016239600
   0.0020520500   -0.0023764700   -0.0016235500
   0.0020735800   -0.0024073600    0.0016239600
   0.0020520500    0.0023764700    0.0016235500
   0.0000464100   -0.0000864600    0.0000937300
   0.0000487900    0.0000891200    0.0000943300
   0.0000464100    0.0000864600   -0.0000937300
   0.0000487900   -0.0000891200   -0.0000943300
   0.0020735800   -0.0016239600    0.0024073600
   0.0020520500   -0.0016235500   -0.0023764700
   0.0000464100    0.0000937300   -0.0000864600
   0.0000487900    0.0000943300    0.0000891200
   0.0020735800    0.0016239600   -0.0024073600
   0.0020520500    0.0016235500    0.0023764700
   0.0000464100   -0.0000937300    0.0000864600
   0.0000487900   -0.0000943300   -0.0000891200
  -0.0011807400    0.0016142600    0.0016142600
   0.0002548500   -0.0000933100   -0.0000933100
  -0.0011837500    0.0016328400   -0.0016328400
   0.0002540900   -0.0000945400    0.0000945400
  -0.0011837500   -0.0016328400    0.0016328400
   0.0002540900    0.0000945400   -0.0000945400
  -0.0011807400   -0.0016142600   -0.0016142600
   0.0002548500    0.0000933100    0.0000933100
