# epsilon and Z* of atoms 1 5
   2.08734579    0.00000000    0.00000000    0.00000000    2.08734579    0.00000000    0.00000000    0.00000000    2.08734579 
   1.04478813    0.00000000    0.00000000    0.00000000    1.04478813    0.00000000    0.00000000    0.00000000    1.04478813 
  -1.04478813    0.00000000    0.00000000    0.00000000   -1.04478813    0.00000000    0.00000000    0.00000000   -1.04478813 
