64   
2    

1    
  0.0100000000000000   0.0000000000000000   0.0000000000000000
  -0.0413263800    0.0000000000    0.0000000000
   0.0072361200    0.0000000000    0.0000000000
  -0.0005969800    0.0000000000    0.0000000000
   0.0006974200    0.0000000000    0.0000000000
  -0.0005969800    0.0000000000    0.0000000000
   0.0006974200    0.0000000000    0.0000000000
  -0.0005203600    0.0000000000    0.0000000000
   0.0005369600    0.0000000000    0.0000000000
  -0.0022561200   -0.0000124100   -0.0000124100
   0.0014467800    0.0000017900    0.0000017900
  -0.0022561200    0.0000124100   -0.0000124100
   0.0014467800   -0.0000017900    0.0000017900
  -0.0022561200   -0.0000124100    0.0000124100
   0.0014467800    0.0000017900   -0.0000017900
  -0.0022561200    0.0000124100    0.0000124100
   0.0014467800   -0.0000017900   -0.0000017900
   0.0022144700    0.0000000000    0.0059803300
   0.0022152800    0.0000000000   -0.0059232100
  -0.0000025700    0.0000000000    0.0000757100
   0.0000027700    0.0000000000   -0.0000775700
   0.0022144700    0.0000000000   -0.0059803300
   0.0022152800    0.0000000000    0.0059232100
  -0.0000025700    0.0000000000   -0.0000757100
   0.0000027700    0.0000000000    0.0000775700
   0.0022144700    0.0059803300    0.0000000000
   0.0022152800   -0.0059232100    0.0000000000
   0.0022144700   -0.0059803300    0.0000000000
   0.0022152800    0.0059232100    0.0000000000
  -0.0000025700    0.0000757100    0.0000000000
   0.0000027700   -0.0000775700    0.0000000000
  -0.0000025700   -0.0000757100    0.0000000000
   0.0000027700    0.0000775700    0.0000000000
   0.0041460300    0.0000000000    0.0000000000
   0.0031796000    0.0000000000    0.0000000000
   0.0000928300    0.0000000000    0.0000000000
   0.0000798600    0.0000000000    0.0000000000
   0.0000928300    0.0000000000    0.0000000000
   0.0000798600    0.0000000000    0.0000000000
   0.0000110400    0.0000000000    0.0000000000
   0.0000111900    0.0000000000    0.0000000000
  -0.0002745700   -0.0013709300   -0.0013709300
  -0.0002846000    0.0013608200    0.0013608200
  -0.0002745700    0.0013709300   -0.0013709300
  -0.0002846000   -0.0013608200    0.0013608200
  -0.0002745700   -0.0013709300    0.0013709300
  -0.0002846000    0.0013608200   -0.0013608200
  -0.0002745700    0.0013709300    0.0013709300
  -0.0002846000   -0.0013608200   -0.0013608200
   0.0063639500    0.0000000000   -0.0000223000
  -0.0028607400    0.0000000000   -0.0000050600
   0.0007567600    0.0000000000    0.0000049800
  -0.0007765200    0.0000000000   -0.0000017500
   0.0063639500    0.0000000000    0.0000223000
  -0.0028607400    0.0000000000    0.0000050600
   0.0007567600    0.0000000000   -0.0000049800
  -0.0007765200    0.0000000000    0.0000017500
   0.0063639500   -0.0000223000    0.0000000000
  -0.0028607400   -0.0000050600    0.0000000000
   0.0063639500    0.0000223000    0.0000000000
  -0.0028607400    0.0000050600    0.0000000000
   0.0007567600    0.0000049800    0.0000000000
  -0.0007765200   -0.0000017500    0.0000000000
   0.0007567600   -0.0000049800    0.0000000000
  -0.0007765200    0.0000017500    0.0000000000

33   
  0.0100000000000000   0.0000000000000000   0.0000000000000000
   0.0031944600    0.0000000000    0.0000000000
   0.0041171600    0.0000000000    0.0000000000
   0.0000764500    0.0000000000    0.0000000000
   0.0000861300    0.0000000000    0.0000000000
   0.0000764500    0.0000000000    0.0000000000
   0.0000861300    0.0000000000    0.0000000000
   0.0000027700    0.0000000000    0.0000000000
   0.0000091400    0.0000000000    0.0000000000
  -0.0002923300    0.0013631800    0.0013631800
  -0.0002762200   -0.0013672000   -0.0013672000
  -0.0002923300   -0.0013631800    0.0013631800
  -0.0002762200    0.0013672000   -0.0013672000
  -0.0002923300    0.0013631800   -0.0013631800
  -0.0002762200   -0.0013672000    0.0013672000
  -0.0002923300   -0.0013631800   -0.0013631800
  -0.0002762200    0.0013672000    0.0013672000
   0.0063576700    0.0000000000    0.0000009900
  -0.0028649600    0.0000000000   -0.0000039000
   0.0007522700    0.0000000000   -0.0000001200
  -0.0007816300    0.0000000000   -0.0000013300
   0.0063576700    0.0000000000   -0.0000009900
  -0.0028649600    0.0000000000    0.0000039000
   0.0007522700    0.0000000000    0.0000001200
  -0.0007816300    0.0000000000    0.0000013300
   0.0063576700    0.0000009900    0.0000000000
  -0.0028649600   -0.0000039000    0.0000000000
   0.0063576700   -0.0000009900    0.0000000000
  -0.0028649600    0.0000039000    0.0000000000
   0.0007522700   -0.0000001200    0.0000000000
  -0.0007816300   -0.0000013300    0.0000000000
   0.0007522700    0.0000001200    0.0000000000
  -0.0007816300    0.0000013300    0.0000000000
  -0.0573538400    0.0000000000    0.0000000000
   0.0046468300    0.0000000000    0.0000000000
  -0.0015372000    0.0000000000    0.0000000000
   0.0018311000    0.0000000000    0.0000000000
  -0.0015372000    0.0000000000    0.0000000000
   0.0018311000    0.0000000000    0.0000000000
  -0.0005234900    0.0000000000    0.0000000000
   0.0005418900    0.0000000000    0.0000000000
  -0.0025870100   -0.0000160100   -0.0000160100
   0.0016082000    0.0000030800    0.0000030800
  -0.0025870100    0.0000160100   -0.0000160100
   0.0016082000   -0.0000030800    0.0000030800
  -0.0025870100   -0.0000160100    0.0000160100
   0.0016082000    0.0000030800   -0.0000030800
  -0.0025870100    0.0000160100    0.0000160100
   0.0016082000   -0.0000030800   -0.0000030800
   0.0046092500    0.0000000000   -0.0063295600
   0.0046426200    0.0000000000    0.0064097300
  -0.0000236000    0.0000000000   -0.0005430300
  -0.0000312200    0.0000000000    0.0005477400
   0.0046092500    0.0000000000    0.0063295600
   0.0046426200    0.0000000000   -0.0064097300
  -0.0000236000    0.0000000000    0.0005430300
  -0.0000312200    0.0000000000   -0.0005477400
   0.0046092500   -0.0063295600    0.0000000000
   0.0046426200    0.0064097300    0.0000000000
   0.0046092500    0.0063295600    0.0000000000
   0.0046426200   -0.0064097300    0.0000000000
  -0.0000236000   -0.0005430300    0.0000000000
  -0.0000312200    0.0005477400    0.0000000000
  -0.0000236000    0.0005430300    0.0000000000
  -0.0000312200   -0.0005477400    0.0000000000
